 Gaussian 09, Revision B.01,
 Gaussian 09:  EM64L-G09RevB.01 12-Aug-2010

 ----------------------------------------------------------------------
 # ub3lyp chkbasis scf=(qc,maxcycle=999) guess=read geom=allcheckpoint
 opt=(modredundant,maxcycle=200)
 ----------------------------------------------------------------------

 NOD_iso_150_250_s1 FePImOONO wavefunction from broken-symmetry guess
 --------------------------------------------------------------------
 Redundant internal coordinates taken from checkpoint file:
 NOD_iso_150_275_s2.chk
 Charge =  0 Multiplicity = 2

 SCF Done:  E(UB3LYP) =  -1618.72268464     a.u. after    7 cycles
 SCF Done:  E(UB3LYP) =  -1618.72157978     a.u. after    9 cycles
 SCF Done:  E(UB3LYP) =  -1618.72354192     a.u. after    7 cycles
 SCF Done:  E(UB3LYP) =  -1618.72137228     a.u. after    9 cycles
 SCF Done:  E(UB3LYP) =  -1618.72398491     a.u. after    8 cycles
 SCF Done:  E(UB3LYP) =  -1618.72389619     a.u. after    6 cycles
 SCF Done:  E(UB3LYP) =  -1618.72425835     a.u. after    5 cycles
 SCF Done:  E(UB3LYP) =  -1618.72459092     a.u. after    5 cycles
 SCF Done:  E(UB3LYP) =  -1618.72470082     a.u. after    4 cycles
 SCF Done:  E(UB3LYP) =  -1618.72472409     a.u. after    4 cycles
 SCF Done:  E(UB3LYP) =  -1618.72473272     a.u. after    3 cycles
 SCF Done:  E(UB3LYP) =  -1618.72473411     a.u. after    3 cycles
 SCF Done:  E(UB3LYP) =  -1618.72473536     a.u. after    2 cycles
 SCF Done:  E(UB3LYP) =  -1618.72473588     a.u. after    3 cycles
 SCF Done:  E(UB3LYP) =  -1618.72473628     a.u. after    4 cycles
 SCF Done:  E(UB3LYP) =  -1618.72473455     a.u. after    3 cycles
 SCF Done:  E(UB3LYP) =  -1618.72473673     a.u. after    3 cycles
 SCF Done:  E(UB3LYP) =  -1618.72473669     a.u. after    2 cycles
 SCF Done:  E(UB3LYP) =  -1618.72473659     a.u. after    2 cycles
 SCF Done:  E(UB3LYP) =  -1618.72473660     a.u. after    2 cycles
 Optimization completed.
    -- Stationary point found.

                         Standard orientation:
 ---------------------------------------------------------------------
 Center     Atomic      Atomic             Coordinates (Angstroms)
 Number     Number       Type             X           Y           Z
 ---------------------------------------------------------------------
      1         26           0       -0.110257    0.009720   -0.190069
      2          7           0       -2.076403    0.084366   -0.660946
      3          7           0       -0.043066    2.030916   -0.248515
      4          7           0        1.824783   -0.046033    0.371912
      5          7           0       -0.210453   -1.991115   -0.022069
      6          6           0        2.556318   -1.156954    0.700367
      7          6           0        3.915871   -0.781069    0.999420
      8          6           0        3.996397    0.566319    0.836781
      9          6           0       -1.277701   -2.777887   -0.356232
     10          6           0       -0.939242   -4.169958   -0.176848
     11          6           0        0.342953   -4.207811    0.268805
     12          6           0        0.795604   -2.840233    0.349955
     13          6           0       -2.832516    1.200368   -0.891939
     14          6           0       -4.168584    0.819889   -1.284716
     15          6           0       -4.198840   -0.537699   -1.306034
     16          6           0        1.072481    2.808883   -0.094354
     17          6           0        0.732647    4.200440   -0.275729
     18          6           0       -0.599054    4.247871   -0.538654
     19          6           0       -1.074412    2.885132   -0.529113
     20          6           0       -2.380649    2.509173   -0.807117
     21          1           0        1.434290    5.019282   -0.211153
     22          1           0       -1.214352    5.113460   -0.736115
     23          1           0       -3.092409    3.298081   -1.018730
     24          1           0       -4.961788    1.513296   -1.522966
     25          1           0       -1.606531   -4.996083   -0.374472
     26          1           0        0.945406   -5.071478    0.509349
     27          6           0       -2.884573   -0.990211   -0.913842
     28          6           0       -2.518825   -2.322612   -0.781516
     29          6           0        2.682866    1.019274    0.447640
     30          6           0        2.078239   -2.459318    0.713241
     31          6           0        2.342659    2.347342    0.222797
     32          1           0        2.773732   -3.243782    0.986368
     33          1           0        4.697670   -1.470629    1.282484
     34          1           0        4.857443    1.206983    0.959683
     35          1           0        3.131793    3.084353    0.312356
     36          1           0       -3.267622   -3.069492   -1.016849
     37          1           0       -5.022854   -1.187334   -1.562668
     38          7           0       -0.644299    0.151013    1.837876
     39          6           0        0.011759    0.817998    2.766225
     40          7           0       -0.616557    0.701079    3.960158
     41          6           0       -1.735596   -0.087282    3.778550
     42          6           0       -1.737234   -0.418751    2.454304
     43          1           0        0.916378    1.382075    2.615351
     44          1           0       -0.314483    1.119133    4.825218
     45          1           0       -2.406544   -0.332722    4.583165
     46          1           0       -2.439904   -1.021720    1.906792
     47          8           0        0.231679   -0.030175   -1.968242
     48          8           0        1.237314   -1.069600   -2.366113
     49          7           0        2.732662   -0.803658   -2.810436
     50          8           0        3.104306    0.284830   -2.801122
 ---------------------------------------------------------------------

 The electronic state is 2-A.
 Alpha  occ. eigenvalues --  -19.20785 -19.15601 -19.13046 -14.47353 -14.39684
 Alpha  occ. eigenvalues --  -14.33835 -14.30985 -14.30875 -14.30803 -14.30801
 Alpha  occ. eigenvalues --  -10.25194 -10.22173 -10.20643 -10.20231 -10.20186
 Alpha  occ. eigenvalues --  -10.20119 -10.20090 -10.20063 -10.20037 -10.20033
 Alpha  occ. eigenvalues --  -10.20024 -10.17534 -10.17400 -10.17393 -10.17370
 Alpha  occ. eigenvalues --  -10.17050 -10.16948 -10.16892 -10.16830 -10.16799
 Alpha  occ. eigenvalues --  -10.16771 -10.16743 -10.16676  -3.53498  -2.32793
 Alpha  occ. eigenvalues --   -2.31881  -2.28289  -1.22509  -1.04891  -1.01997
 Alpha  occ. eigenvalues --   -0.96330  -0.95451  -0.95357  -0.94468  -0.90572
 Alpha  occ. eigenvalues --   -0.83088  -0.81447  -0.78787  -0.78729  -0.77504
 Alpha  occ. eigenvalues --   -0.77031  -0.76507  -0.76421  -0.76143  -0.73863
 Alpha  occ. eigenvalues --   -0.71254  -0.65214  -0.65181  -0.64950  -0.63859
 Alpha  occ. eigenvalues --   -0.62216  -0.59458  -0.59145  -0.57468  -0.57082
 Alpha  occ. eigenvalues --   -0.57017  -0.56897  -0.54631  -0.54012  -0.52198
 Alpha  occ. eigenvalues --   -0.52067  -0.51558  -0.51194  -0.49459  -0.49451
 Alpha  occ. eigenvalues --   -0.49099  -0.48142  -0.47670  -0.46730  -0.46387
 Alpha  occ. eigenvalues --   -0.44898  -0.44295  -0.43538  -0.42350  -0.42330
 Alpha  occ. eigenvalues --   -0.42287  -0.42129  -0.41613  -0.41376  -0.40819
 Alpha  occ. eigenvalues --   -0.39457  -0.39245  -0.39209  -0.38943  -0.38827
 Alpha  occ. eigenvalues --   -0.37846  -0.37357  -0.37274  -0.37115  -0.36467
 Alpha  occ. eigenvalues --   -0.36277  -0.35197  -0.34683  -0.33862  -0.33144
 Alpha  occ. eigenvalues --   -0.32205  -0.31796  -0.30195  -0.29093  -0.28007
 Alpha  occ. eigenvalues --   -0.27945  -0.27769  -0.27388  -0.26003  -0.25421
 Alpha  occ. eigenvalues --   -0.24616  -0.24573  -0.24058  -0.23363  -0.22215
 Alpha  occ. eigenvalues --   -0.19361  -0.18926
 Alpha virt. eigenvalues --   -0.08042  -0.07910  -0.06943  -0.04182  -0.03579
 Alpha virt. eigenvalues --   -0.02185  -0.00381   0.00548   0.01160   0.02812
 Alpha virt. eigenvalues --    0.03503   0.04155   0.04702   0.04909   0.05999

  Beta  occ. eigenvalues --  -19.20775 -19.15633 -19.12717 -14.47335 -14.39685
  Beta  occ. eigenvalues --  -14.33862 -14.31023 -14.30906 -14.30839 -14.30835
  Beta  occ. eigenvalues --  -10.25193 -10.22174 -10.20641 -10.20233 -10.20181
  Beta  occ. eigenvalues --  -10.20121 -10.20089 -10.20062 -10.20040 -10.20026
  Beta  occ. eigenvalues --  -10.20025 -10.17537 -10.17403 -10.17397 -10.17372
  Beta  occ. eigenvalues --  -10.17044 -10.16951 -10.16888 -10.16828 -10.16800
  Beta  occ. eigenvalues --  -10.16765 -10.16745 -10.16678  -3.48287  -2.25630
  Beta  occ. eigenvalues --   -2.25458  -2.25426  -1.22485  -1.04899  -1.01739
  Beta  occ. eigenvalues --   -0.96350  -0.95475  -0.95376  -0.94489  -0.90588
  Beta  occ. eigenvalues --   -0.82694  -0.81449  -0.78794  -0.78729  -0.77505
  Beta  occ. eigenvalues --   -0.77039  -0.76524  -0.76433  -0.76153  -0.73872
  Beta  occ. eigenvalues --   -0.71255  -0.65217  -0.65183  -0.64953  -0.63786
  Beta  occ. eigenvalues --   -0.62217  -0.59459  -0.59145  -0.57469  -0.57090
  Beta  occ. eigenvalues --   -0.57024  -0.56899  -0.54637  -0.54022  -0.52222
  Beta  occ. eigenvalues --   -0.52090  -0.51471  -0.51176  -0.49463  -0.49457
  Beta  occ. eigenvalues --   -0.49098  -0.48071  -0.47651  -0.46717  -0.46384
  Beta  occ. eigenvalues --   -0.44901  -0.44295  -0.43550  -0.42350  -0.42329
  Beta  occ. eigenvalues --   -0.42276  -0.42120  -0.41331  -0.41143  -0.40820
  Beta  occ. eigenvalues --   -0.39418  -0.39249  -0.39219  -0.38843  -0.38807
  Beta  occ. eigenvalues --   -0.37820  -0.37305  -0.37253  -0.36937  -0.36283
  Beta  occ. eigenvalues --   -0.35955  -0.34993  -0.33380  -0.33108  -0.32288
  Beta  occ. eigenvalues --   -0.32077  -0.30617  -0.29759  -0.28006  -0.27929
  Beta  occ. eigenvalues --   -0.26732  -0.25992  -0.25666  -0.25440  -0.25207
  Beta  occ. eigenvalues --   -0.24521  -0.24352  -0.22526  -0.22085  -0.19335
  Beta  occ. eigenvalues --   -0.18963
  Beta virt. eigenvalues --   -0.09058  -0.07896  -0.06870  -0.06106  -0.02530
  Beta virt. eigenvalues --   -0.02172  -0.01163  -0.00340   0.00878   0.01284
  Beta virt. eigenvalues --    0.02819   0.03513   0.04165   0.04699   0.04912

 Mulliken atomic charges:
              1
     1  Fe   0.708902
     2  N   -0.526186
     3  N   -0.523903
     4  N   -0.533749
     5  N   -0.527065
     6  C    0.241159
     7  C   -0.104730
     8  C   -0.099304
     9  C    0.247276
    10  C   -0.098987
    11  C   -0.101174
    12  C    0.266714
    13  C    0.258020
    14  C   -0.104882
    15  C   -0.098725
    16  C    0.242768
    17  C   -0.102687
    18  C   -0.104449
    19  C    0.256179
    20  C   -0.170021
    21  H    0.086018
    22  H    0.086211
    23  H    0.084872
    24  H    0.086294
    25  H    0.086479
    26  H    0.086032
    27  C    0.240758
    28  C   -0.170975
    29  C    0.211247
    30  C   -0.175181
    31  C   -0.175169
    32  H    0.084047
    33  H    0.086737
    34  H    0.086846
    35  H    0.084006
    36  H    0.084638
    37  H    0.086886
    38  N   -0.333300
    39  C    0.257758
    40  N   -0.333213
    41  C    0.007713
    42  C    0.005209
    43  H    0.149125
    44  H    0.241730
    45  H    0.121477
    46  H    0.136683
    47  O   -0.277601
    48  O   -0.187510
    49  N    0.210523
    50  O   -0.083495
 Sum of Mulliken atomic charges =   0.00000

 Dipole moment (field-independent basis, Debye):
    X=             -1.3563    Y=              1.3572    Z=              8.3922  Tot=              8.6088
 Quadrupole moment (field-independent basis, Debye-Ang):
   XX=           -179.3863   YY=           -180.2911   ZZ=           -183.5963
   XY=              2.8688   XZ=              4.9175   YZ=              2.8831

 Normal termination of Gaussian 09 at Fri Sep 14 23:58:19 2012.
