 Gaussian 09, Revision B.01,
 Gaussian 09:  EM64L-G09RevB.01 12-Aug-2010

 ----------------------------------------------------------------------
 # ub3lyp chkbasis scf=(qc,maxcycle=999) guess=read geom=allcheckpoint
 opt=(modredundant,maxcycle=200)
 ----------------------------------------------------------------------

 NOD_iso_150_250_s1 FePImOONO wavefunction from broken-symmetry guess
 --------------------------------------------------------------------
 Z-Matrix taken from the checkpoint file:
 NOD_iso_150_250_s2.chk
 Charge =  0 Multiplicity = 2

 SCF Done:  E(UB3LYP) =  -1618.73377827     a.u. after  125 cycles
 SCF Done:  E(UB3LYP) =  -1618.73604887     a.u. after    7 cycles
 SCF Done:  E(UB3LYP) =  -1618.73450032     a.u. after   12 cycles
 SCF Done:  E(UB3LYP) =  -1618.73627171     a.u. after   10 cycles
 SCF Done:  E(UB3LYP) =  -1618.73644100     a.u. after    5 cycles
 SCF Done:  E(UB3LYP) =  -1618.73635168     a.u. after    6 cycles
 SCF Done:  E(UB3LYP) =  -1618.73660743     a.u. after    5 cycles
 SCF Done:  E(UB3LYP) =  -1618.73665899     a.u. after    3 cycles
 SCF Done:  E(UB3LYP) =  -1618.73668687     a.u. after    3 cycles
 SCF Done:  E(UB3LYP) =  -1618.73669536     a.u. after    3 cycles
 SCF Done:  E(UB3LYP) =  -1618.73670017     a.u. after    3 cycles
 SCF Done:  E(UB3LYP) =  -1618.73670059     a.u. after    2 cycles
 SCF Done:  E(UB3LYP) =  -1618.73670106     a.u. after    2 cycles
 SCF Done:  E(UB3LYP) =  -1618.73670207     a.u. after    2 cycles
 SCF Done:  E(UB3LYP) =  -1618.73670345     a.u. after    2 cycles
 SCF Done:  E(UB3LYP) =  -1618.73670496     a.u. after    2 cycles
 SCF Done:  E(UB3LYP) =  -1618.73670629     a.u. after    2 cycles
 Optimization completed.
    -- Stationary point found.

                         Standard orientation:
 ---------------------------------------------------------------------
 Center     Atomic      Atomic             Coordinates (Angstroms)
 Number     Number       Type             X           Y           Z
 ---------------------------------------------------------------------
      1         26           0       -0.091387    0.014656   -0.176902
      2          7           0       -2.038369    0.339033   -0.617200
      3          7           0        0.217676    2.012882   -0.184844
      4          7           0        1.824758   -0.291836    0.357185
      5          7           0       -0.428721   -1.965145   -0.072323
      6          6           0        2.419759   -1.491221    0.649862
      7          6           0        3.817782   -1.289901    0.938197
      8          6           0        4.059830    0.040682    0.802651
      9          6           0       -1.586073   -2.607690   -0.418891
     10          6           0       -1.416796   -4.034506   -0.282115
     11          6           0       -0.146487   -4.239786    0.152771
     12          6           0        0.468672   -2.940587    0.269250
     13          6           0       -2.659207    1.544667   -0.797562
     14          6           0       -4.036628    1.339502   -1.176235
     15          6           0       -4.229088   -0.003306   -1.241898
     16          6           0        1.423695    2.644052   -0.038916
     17          6           0        1.255117    4.070009   -0.186294
     18          6           0       -0.065315    4.287156   -0.419661
     19          6           0       -0.705244    2.994008   -0.427418
     20          6           0       -2.052203    2.786826   -0.686256
     21          1           0        2.054009    4.794229   -0.122046
     22          1           0       -0.572146    5.225961   -0.588421
     23          1           0       -2.666980    3.661094   -0.863399
     24          1           0       -4.744592    2.130270   -1.376670
     25          1           0       -2.180011   -4.768105   -0.496926
     26          1           0        0.347680   -5.176522    0.364599
     27          6           0       -2.973053   -0.622293   -0.889959
     28          6           0       -2.767732   -1.992845   -0.810703
     29          6           0        2.807363    0.659031    0.442454
     30          6           0        1.789323   -2.726601    0.633632
     31          6           0        2.631254    2.022721    0.248023
     32          1           0        2.387572   -3.595875    0.878653
     33          1           0        4.513072   -2.076035    1.193575
     34          1           0        4.994141    0.568778    0.924942
     35          1           0        3.507209    2.654066    0.336158
     36          1           0       -3.603401   -2.636169   -1.059008
     37          1           0       -5.128632   -0.540932   -1.503782
     38          7           0       -0.587567    0.155951    1.849938
     39          6           0        0.082362    0.831920    2.761922
     40          7           0       -0.519882    0.713152    3.968587
     41          6           0       -1.636329   -0.084428    3.812732
     42          6           0       -1.662869   -0.421058    2.490134
     43          1           0        0.979490    1.401824    2.589993
     44          1           0       -0.202678    1.135690    4.826063
     45          1           0       -2.289238   -0.331146    4.631618
     46          1           0       -2.371671   -1.031807    1.959335
     47          8           0        0.248414   -0.000261   -1.961594
     48          8           0        1.106577   -1.153650   -2.389674
     49          7           0        2.383357   -0.861476   -2.936440
     50          8           0        2.705595    0.264859   -2.974216
 ---------------------------------------------------------------------

 The electronic state is 2-A.
 Alpha  occ. eigenvalues --  -19.18368 -19.16598 -19.13278 -14.45557 -14.39929
 Alpha  occ. eigenvalues --  -14.34173 -14.31201 -14.31115 -14.31081 -14.31041
 Alpha  occ. eigenvalues --  -10.25467 -10.22411 -10.20914 -10.20363 -10.20353
 Alpha  occ. eigenvalues --  -10.20293 -10.20292 -10.20264 -10.20263 -10.20260
 Alpha  occ. eigenvalues --  -10.20243 -10.17666 -10.17604 -10.17563 -10.17556
 Alpha  occ. eigenvalues --  -10.17120 -10.17050 -10.17023 -10.16999 -10.16995
 Alpha  occ. eigenvalues --  -10.16959 -10.16910 -10.16894  -3.54083  -2.33408
 Alpha  occ. eigenvalues --   -2.32435  -2.28857  -1.19565  -1.05165  -1.04743
 Alpha  occ. eigenvalues --   -0.96548  -0.95620  -0.95583  -0.94665  -0.90852
 Alpha  occ. eigenvalues --   -0.86711  -0.81644  -0.78969  -0.78929  -0.77760
 Alpha  occ. eigenvalues --   -0.77213  -0.76662  -0.76620  -0.76330  -0.74049
 Alpha  occ. eigenvalues --   -0.71439  -0.65385  -0.65371  -0.65211  -0.62504
 Alpha  occ. eigenvalues --   -0.62057  -0.59643  -0.59381  -0.57647  -0.57237
 Alpha  occ. eigenvalues --   -0.57213  -0.57088  -0.54799  -0.54199  -0.52327
 Alpha  occ. eigenvalues --   -0.52236  -0.51408  -0.51195  -0.49628  -0.49620
 Alpha  occ. eigenvalues --   -0.47937  -0.47769  -0.47324  -0.46946  -0.46637
 Alpha  occ. eigenvalues --   -0.45073  -0.44566  -0.43721  -0.42505  -0.42492
 Alpha  occ. eigenvalues --   -0.42389  -0.42299  -0.41664  -0.41475  -0.40980
 Alpha  occ. eigenvalues --   -0.39667  -0.39403  -0.39381  -0.39145  -0.38995
 Alpha  occ. eigenvalues --   -0.38049  -0.37516  -0.37424  -0.37352  -0.36827
 Alpha  occ. eigenvalues --   -0.36455  -0.35773  -0.34660  -0.34151  -0.33504
 Alpha  occ. eigenvalues --   -0.32380  -0.31852  -0.30531  -0.29108  -0.28269
 Alpha  occ. eigenvalues --   -0.28143  -0.28106  -0.26741  -0.26268  -0.25677
 Alpha  occ. eigenvalues --   -0.25537  -0.24755  -0.24274  -0.23659  -0.23388
 Alpha  occ. eigenvalues --   -0.19529  -0.19124
 Alpha virt. eigenvalues --   -0.08199  -0.08092  -0.05558  -0.04038  -0.03769
 Alpha virt. eigenvalues --   -0.02337  -0.00619   0.00955   0.02208   0.02611
 Alpha virt. eigenvalues --    0.03462   0.04214   0.04503   0.04827   0.05890

  Beta  occ. eigenvalues --  -19.18388 -19.16598 -19.12971 -14.45550 -14.39930
  Beta  occ. eigenvalues --  -14.34204 -14.31240 -14.31148 -14.31119 -14.31076
  Beta  occ. eigenvalues --  -10.25466 -10.22412 -10.20911 -10.20365 -10.20347
  Beta  occ. eigenvalues --  -10.20295 -10.20291 -10.20265 -10.20258 -10.20257
  Beta  occ. eigenvalues --  -10.20245 -10.17669 -10.17607 -10.17566 -10.17558
  Beta  occ. eigenvalues --  -10.17114 -10.17046 -10.17026 -10.16995 -10.16988
  Beta  occ. eigenvalues --  -10.16961 -10.16912 -10.16897  -3.48812  -2.26174
  Beta  occ. eigenvalues --   -2.25951  -2.25934  -1.19556  -1.05174  -1.04581
  Beta  occ. eigenvalues --   -0.96569  -0.95643  -0.95604  -0.94686  -0.90871
  Beta  occ. eigenvalues --   -0.86263  -0.81647  -0.78977  -0.78928  -0.77762
  Beta  occ. eigenvalues --   -0.77222  -0.76680  -0.76633  -0.76340  -0.74057
  Beta  occ. eigenvalues --   -0.71439  -0.65389  -0.65372  -0.65216  -0.62503
  Beta  occ. eigenvalues --   -0.61990  -0.59642  -0.59382  -0.57647  -0.57244
  Beta  occ. eigenvalues --   -0.57220  -0.57090  -0.54806  -0.54210  -0.52365
  Beta  occ. eigenvalues --   -0.52264  -0.51391  -0.51122  -0.49631  -0.49626
  Beta  occ. eigenvalues --   -0.47919  -0.47781  -0.47220  -0.46935  -0.46639
  Beta  occ. eigenvalues --   -0.45076  -0.44565  -0.43733  -0.42505  -0.42492
  Beta  occ. eigenvalues --   -0.42379  -0.42291  -0.41442  -0.41221  -0.40981
  Beta  occ. eigenvalues --   -0.39641  -0.39410  -0.39398  -0.39035  -0.38973
  Beta  occ. eigenvalues --   -0.38029  -0.37471  -0.37409  -0.37227  -0.36461
  Beta  occ. eigenvalues --   -0.36290  -0.35539  -0.33674  -0.33419  -0.32381
  Beta  occ. eigenvalues --   -0.31934  -0.30732  -0.28961  -0.28161  -0.28089
  Beta  occ. eigenvalues --   -0.27125  -0.26587  -0.26234  -0.25579  -0.25481
  Beta  occ. eigenvalues --   -0.24856  -0.24688  -0.23120  -0.22768  -0.19500
  Beta  occ. eigenvalues --   -0.19163
  Beta virt. eigenvalues --   -0.09337  -0.08075  -0.06499  -0.04730  -0.02619
  Beta virt. eigenvalues --   -0.02318  -0.01601  -0.00593   0.00980   0.02423
  Beta virt. eigenvalues --    0.02634   0.03481   0.04268   0.04500   0.04837

 Mulliken atomic charges:
              1
     1  Fe   0.713874
     2  N   -0.525744
     3  N   -0.527056
     4  N   -0.536298
     5  N   -0.532802
     6  C    0.244213
     7  C   -0.101198
     8  C   -0.096766
     9  C    0.239206
    10  C   -0.097837
    11  C   -0.100558
    12  C    0.263497
    13  C    0.257810
    14  C   -0.104464
    15  C   -0.098687
    16  C    0.240196
    17  C   -0.099900
    18  C   -0.104205
    19  C    0.253958
    20  C   -0.168148
    21  H    0.087259
    22  H    0.086944
    23  H    0.085613
    24  H    0.086916
    25  H    0.087399
    26  H    0.087091
    27  C    0.242494
    28  C   -0.169843
    29  C    0.218954
    30  C   -0.172206
    31  C   -0.169496
    32  H    0.085185
    33  H    0.087475
    34  H    0.087825
    35  H    0.084930
    36  H    0.085126
    37  H    0.087364
    38  N   -0.333964
    39  C    0.260439
    40  N   -0.333165
    41  C    0.009244
    42  C    0.004305
    43  H    0.149899
    44  H    0.242674
    45  H    0.122414
    46  H    0.137409
    47  O   -0.287793
    48  O   -0.126639
    49  N    0.207947
    50  O   -0.160894
 Sum of Mulliken atomic charges =   0.00000

 Dipole moment (field-independent basis, Debye):
    X=             -1.9543    Y=              1.2181    Z=              9.0889  Tot=              9.3761
 Quadrupole moment (field-independent basis, Debye-Ang):
   XX=           -181.2817   YY=           -179.1761   ZZ=           -185.6250
   XY=              2.8904   XZ=              8.2316   YZ=              3.4651

 Normal termination of Gaussian 09 at Tue Sep 11 22:18:22 2012.
